LAMMPS data file. Contains pre-equilibrated positions and velocities for a gas-phase calculation.

         104  atoms
         103  bonds
         183  angles
         260  dihedrals
          22  impropers

          12  atom types
          14  bond types
          27  angle types
          37  dihedral types
           5  improper types

 -1000.0  1000.0  xlo xhi
 -1000.0  1000.0  ylo yhi
 -1000.0  1000.0  zlo zhi

Masses

       1      1.008  # H
       2      1.008  # HC
       3      1.008  # HA
       4      1.008  # HB
       5     12.011  # C
       6     12.011  # CT1
       7     12.011  # CT3
       8     12.011  # CC
       9     14.007  # NH1
      10     14.007  # NH2
      11     14.007  # NH3
      12     15.999  # O

Pair Coeffs # lj/charmm/coul/long

       1            0.046   0.400013524445            0.046   0.400013524445  # H
       2            0.046   0.400013524445            0.046   0.400013524445  # HC
       3            0.022    2.35197261589            0.022    2.35197261589  # HA
       4            0.022    2.35197261589            0.022    2.35197261589  # HB
       5             0.11    3.56359487256             0.11    3.56359487256  # C
       6             0.02    4.05358916754             0.01    3.38541512893  # CT1
       7             0.08    3.67050271874             0.01    3.38541512893  # CT3
       8             0.07    3.56359487256             0.07    3.56359487256  # CC
       9              0.2    3.29632525712              0.2    2.76178602624  # NH1
      10              0.2    3.29632525712              0.2    3.29632525712  # NH2
      11              0.2    3.29632525712              0.2    3.29632525712  # NH3
      12             0.12    3.02905564168             0.12    2.49451641079  # O

Atoms # full

       1       1    11     -0.62          8.428   0.042  -0.744  # NH3
       2       1     2      0.31          9.136  -0.709  -0.616  # HC
       3       1     2      0.31          8.566   0.341  -1.731  # HC
       4       1     6      -0.1          7.006  -0.477  -0.686  # CT1
       5       1     4       0.1          6.437  -0.075  -1.510  # HB
       6       1     7     -0.27          7.040  -2.003  -1.042  # CT3
       7       1     3      0.09          6.078  -2.439  -1.387  # HA
       8       1     3      0.09          7.781  -2.129  -1.859  # HA
       9       1     3      0.09          7.376  -2.582  -0.155  # HA
      10       1     5      0.51          6.232  -0.252   0.617  # C
      11       1    12     -0.51          5.034  -0.207   0.633  # O
      12       2     9     -0.47          6.910  -0.266   1.773  # NH1
      13       2     1      0.31          7.884  -0.455   1.873  # H
      14       2     6      0.07          6.185  -0.133   3.039  # CT1
      15       2     4      0.09          5.416  -0.892   3.036  # HB
      16       2     7     -0.27          7.201  -0.317   4.302  # CT3
      17       2     3      0.09          6.581  -0.303   5.224  # HA
      18       2     3      0.09          7.673  -1.320   4.236  # HA
      19       2     3      0.09          8.030   0.419   4.379  # HA
      20       2     5      0.51          5.300   1.147   3.253  # C
      21       2    12     -0.51          4.096   1.082   3.600  # O
      22       3     9     -0.47          5.874   2.349   2.936  # NH1
      23       3     1      0.31          6.848   2.310   2.726  # H
      24       3     6      0.07          5.235   3.604   2.877  # CT1
      25       3     4      0.09          4.851   3.737   3.878  # HB
      26       3     7     -0.27          6.317   4.651   2.477  # CT3
      27       3     3      0.09          6.552   4.552   1.396  # HA
      28       3     3      0.09          5.942   5.679   2.669  # HA
      29       3     3      0.09          7.214   4.336   3.053  # HA
      30       3     5      0.51          3.911   3.676   2.035  # C
      31       3    12     -0.51          2.936   4.121   2.584  # O
      32       4     9     -0.47          3.818   3.243   0.783  # NH1
      33       4     1      0.31          4.597   2.858   0.295  # H
      34       4     6      0.07          2.655   3.214  -0.055  # CT1
      35       4     4      0.09          2.247   4.208   0.062  # HB
      36       4     7     -0.27          3.045   2.741  -1.560  # CT3
      37       4     3      0.09          3.649   3.457  -2.157  # HA
      38       4     3      0.09          3.469   1.714  -1.565  # HA
      39       4     3      0.09          2.067   2.598  -2.067  # HA
      40       4     5      0.51          1.656   2.181   0.554  # C
      41       4    12     -0.51          0.423   2.412   0.581  # O
      42       5     9     -0.47          2.001   0.982   1.067  # NH1
      43       5     1      0.31          2.919   0.610   0.957  # H
      44       5     6      0.07          1.110   0.020   1.689  # CT1
      45       5     4      0.09          0.341  -0.314   1.009  # HB
      46       5     7     -0.27          2.017  -1.219   2.022  # CT3
      47       5     3      0.09          2.398  -1.660   1.076  # HA
      48       5     3      0.09          2.930  -1.042   2.629  # HA
      49       5     3      0.09          1.404  -2.012   2.501  # HA
      50       5     5      0.51          0.490   0.565   3.013  # C
      51       5    12     -0.51         -0.693   0.401   3.207  # O
      52       6     9     -0.47          1.258   1.299   3.826  # NH1
      53       6     1      0.31          2.240   1.401   3.684  # H
      54       6     6      0.07          0.796   1.870   5.090  # CT1
      55       6     4      0.09          0.556   1.093   5.801  # HB
      56       6     7     -0.27          2.075   2.573   5.621  # CT3
      57       6     3      0.09          2.342   3.348   4.870  # HA
      58       6     3      0.09          1.785   3.013   6.599  # HA
      59       6     3      0.09          2.795   1.739   5.761  # HA
      60       6     5      0.51         -0.345   2.920   4.990  # C
      61       6    12     -0.51         -1.187   3.009   5.894  # O
      62       7     9     -0.47         -0.377   3.707   3.884  # NH1
      63       7     1      0.31          0.227   3.546   3.107  # H
      64       7     6      0.07         -1.445   4.628   3.529  # CT1
      65       7     4      0.09         -1.664   5.160   4.443  # HB
      66       7     7     -0.27         -0.780   5.374   2.402  # CT3
      67       7     3      0.09         -0.882   4.811   1.449  # HA
      68       7     3      0.09         -1.257   6.371   2.289  # HA
      69       7     3      0.09          0.290   5.495   2.675  # HA
      70       7     5      0.51         -2.700   3.899   2.954  # C
      71       7    12     -0.51         -3.847   4.392   2.883  # O
      72       8     9     -0.47         -2.544   2.629   2.514  # NH1
      73       8     1      0.31         -1.699   2.179   2.234  # H
      74       8     6      0.07         -3.743   1.868   2.086  # CT1
      75       8     4      0.09         -4.489   2.584   1.775  # HB
      76       8     7     -0.27         -3.401   0.785   1.027  # CT3
      77       8     3      0.09         -4.294   0.164   0.799  # HA
      78       8     3      0.09         -3.221   1.338   0.080  # HA
      79       8     3      0.09         -2.523   0.166   1.312  # HA
      80       8     5      0.51         -4.356   1.130   3.214  # C
      81       8    12     -0.51         -5.528   0.960   3.354  # O
      82       9     9     -0.47         -3.494   0.633   4.186  # NH1
      83       9     1      0.31         -2.553   0.884   3.976  # H
      84       9     6      0.07         -3.741   0.099   5.463  # CT1
      85       9     4      0.09         -4.328  -0.806   5.425  # HB
      86       9     7     -0.27         -2.466  -0.449   6.118  # CT3
      87       9     3      0.09         -1.807  -1.033   5.440  # HA
      88       9     3      0.09         -1.931   0.487   6.385  # HA
      89       9     3      0.09         -2.695  -0.958   7.079  # HA
      90       9     5      0.51         -4.453   1.029   6.423  # C
      91       9    12     -0.51         -5.330   0.583   7.172  # O
      92      10     8      0.55         -6.288   3.553   6.688  # CC
      93      10    12     -0.55         -6.941   4.323   7.420  # O
      94      10    10     -0.62         -6.780   3.205   5.492  # NH2
      95      10     1      0.32         -7.750   3.440   5.439  # H
      96      10     1       0.3         -6.273   2.609   4.870  # H
      97      10     9     -0.47         -4.077   2.286   6.465  # NH1
      98      10     1      0.31         -3.400   2.716   5.873  # H
      99      10     6      0.07         -4.907   3.247   7.218  # CT1
     100      10     4      0.09         -5.123   3.034   8.255  # HB
     101      10     7     -0.27         -4.049   4.482   7.263  # CT3
     102      10     3      0.09         -4.075   5.036   6.300  # HA
     103      10     3      0.09         -4.518   5.133   8.032  # HA
     104      10     3      0.09         -3.056   4.473   7.761  # HA

Velocities

       1       -0.006800       -0.000144       -0.000743     
       2       -0.003277        0.001042       -0.010754     
       3       -0.009090        0.016981        0.004164     
       4       -0.001331       -0.002890        0.007365     
       5        0.017839       -0.007456       -0.008433     
       6       -0.000230       -0.004379        0.004851     
       7       -0.005737        0.001380        0.012410     
       8        0.002983       -0.004440        0.007805     
       9       -0.002126       -0.014071       -0.001430     
      10        0.006061        0.000965        0.010541     
      11       -0.004148       -0.001592        0.007048     
      12       -0.000318       -0.001963        0.006192     
      13       -0.003131       -0.025944       -0.018361     
      14       -0.002151        0.001376        0.000779     
      15       -0.011594        0.010640        0.029069     
      16       -0.001429       -0.000184        0.002209     
      17       -0.003300       -0.026373        0.002082     
      18       -0.012171       -0.006226        0.012180     
      19       -0.002688        0.000085        0.008484     
      20        0.003838       -0.007396        0.008022     
      21       -0.003930       -0.002999        0.005104     
      22        0.000600       -0.004351        0.007810     
      23       -0.004560       -0.003514       -0.016919     
      24       -0.000241       -0.002935        0.002033     
      25        0.019399        0.009908        0.007961     
      26        0.006135       -0.007379       -0.002103     
      27       -0.011565       -0.039191       -0.003274     
      28       -0.006330       -0.012033        0.000592     
      29        0.017501        0.015127       -0.008062     
      30       -0.004841        0.008993       -0.004632     
      31       -0.002034       -0.002698       -0.006035     
      32       -0.000216        0.000519        0.001932     
      33        0.004596        0.000422        0.009535     
      34        0.003076       -0.005776       -0.006188     
      35        0.000903       -0.006450       -0.010902     
      36        0.003927       -0.004338       -0.010684     
      37        0.001108        0.016180        0.011485     
      38        0.016775        0.000940        0.032032     
      39       -0.007844        0.012401        0.007291     
      40        0.000180       -0.008932        0.008875     
      41        0.001012        0.006487       -0.004389     
      42       -0.007324        0.007959       -0.002456     
      43       -0.007673       -0.003507        0.034064     
      44        0.006020       -0.002957       -0.001159     
      45        0.017232        0.027164       -0.028026     
      46        0.000969        0.006588        0.001664     
      47        0.013506        0.020164        0.000417     
      48        0.008827        0.019680       -0.013935     
      49       -0.004927        0.013823        0.007770     
      50        0.004519        0.007666        0.002342     
      51        0.005526       -0.005371       -0.004886     
      52        0.009397        0.002628       -0.001475     
      53        0.009982        0.015064        0.011820     
      54        0.006699        0.004979       -0.001192     
      55        0.029849       -0.002257       -0.000618     
      56        0.000587        0.003711        0.000246     
      57       -0.001361        0.000051       -0.004598     
      58       -0.010399        0.017016       -0.009100     
      59       -0.025426       -0.016328        0.012407     
      60       -0.002692        0.000328       -0.001000     
      61        0.002926        0.002950        0.003626     
      62       -0.003758       -0.001118       -0.003851     
      63       -0.010156       -0.005717       -0.007991     
      64       -0.004977       -0.005996        0.002214     
      65        0.007983       -0.016226        0.011225     
      66        0.005262        0.000428        0.001786     
      67        0.022613       -0.025615        0.015463     
      68        0.023682        0.008511       -0.003115     
      69        0.000008        0.007657        0.019713     
      70       -0.000936       -0.000591       -0.003715     
      71       -0.002825        0.005095       -0.005933     
      72       -0.004268       -0.004096       -0.001252     
      73        0.000476        0.010937       -0.011050     
      74        0.005864        0.008738       -0.001706     
      75       -0.003529       -0.005988       -0.014717     
      76       -0.000472        0.001705       -0.004976     
      77       -0.002443        0.013383       -0.027529     
      78       -0.004203       -0.011042       -0.013388     
      79       -0.001331        0.003020        0.000367     
      80        0.006227       -0.003693       -0.001835     
      81        0.001349       -0.007888       -0.000720     
      82        0.005158       -0.003627       -0.001750     
      83        0.000095        0.029239        0.014745     
      84       -0.006206        0.003807        0.002678     
      85        0.009364       -0.006718        0.003558     
      86        0.011178        0.004711        0.004093     
      87        0.019426        0.013176        0.003987     
      88        0.003409        0.004003        0.023248     
      89       -0.008783       -0.009520       -0.008815     
      90       -0.001809       -0.004462       -0.001978     
      91        0.002265        0.002581        0.003071     
      92       -0.001101       -0.004904        0.002883     
      93        0.007185       -0.003853       -0.000020     
      94        0.007929        0.001161        0.003492     
      95        0.006541        0.004178        0.044883     
      96       -0.000726        0.014245       -0.016122     
      97        0.002351        0.000972        0.003408     
      98        0.004408       -0.012185       -0.003176     
      99       -0.003764        0.000622        0.000082     
     100       -0.002434       -0.028749       -0.005989     
     101       -0.003411       -0.000233       -0.000471     
     102       -0.009286        0.022721        0.013059     
     103        0.018694        0.023389       -0.007031     
     104       -0.000905       -0.008818       -0.006046     

Bond Coeffs # harmonic

       1              250             1.49  # C    CT1 
       2              370            1.345  # C    NH1 
       3              620             1.23  # C    O   
       4              200            1.522  # CC   CT1 
       5              430             1.36  # CC   NH2 
       6              650             1.23  # CC   O   
       7            222.5            1.538  # CT1  CT3 
       8              330             1.08  # CT1  HB  
       9              320             1.43  # CT1  NH1 
      10              200             1.48  # CT1  NH3 
      11              322            1.111  # CT3  HA  
      12              440            0.997  # H    NH1 
      13              480                1  # H    NH2 
      14              403             1.04  # HC   NH3 

Bonds

       1      10       1       4  # CT1  NH3 
       2      14       2       1  # HC   NH3 
       3      14       3       1  # HC   NH3 
       4       8       4       5  # CT1  HB  
       5       7       6       4  # CT1  CT3 
       6      11       6       7  # CT3  HA  
       7      11       6       8  # CT3  HA  
       8      11       6       9  # CT3  HA  
       9       1      10       4  # C    CT1 
      10       2      10      12  # C    NH1 
      11       3      11      10  # C    O   
      12      12      12      13  # H    NH1 
      13       9      12      14  # CT1  NH1 
      14       8      14      15  # CT1  HB  
      15       7      16      14  # CT1  CT3 
      16      11      16      17  # CT3  HA  
      17      11      16      18  # CT3  HA  
      18      11      16      19  # CT3  HA  
      19       1      20      14  # C    CT1 
      20       2      20      22  # C    NH1 
      21       3      21      20  # C    O   
      22      12      22      23  # H    NH1 
      23       9      22      24  # CT1  NH1 
      24       8      24      25  # CT1  HB  
      25       7      26      24  # CT1  CT3 
      26      11      26      27  # CT3  HA  
      27      11      26      28  # CT3  HA  
      28      11      26      29  # CT3  HA  
      29       1      30      24  # C    CT1 
      30       2      30      32  # C    NH1 
      31       3      31      30  # C    O   
      32      12      32      33  # H    NH1 
      33       9      32      34  # CT1  NH1 
      34       8      34      35  # CT1  HB  
      35       7      36      34  # CT1  CT3 
      36      11      36      37  # CT3  HA  
      37      11      36      38  # CT3  HA  
      38      11      36      39  # CT3  HA  
      39       1      40      34  # C    CT1 
      40       2      40      42  # C    NH1 
      41       3      41      40  # C    O   
      42      12      42      43  # H    NH1 
      43       9      42      44  # CT1  NH1 
      44       8      44      45  # CT1  HB  
      45       7      46      44  # CT1  CT3 
      46      11      46      47  # CT3  HA  
      47      11      46      48  # CT3  HA  
      48      11      46      49  # CT3  HA  
      49       1      50      44  # C    CT1 
      50       2      50      52  # C    NH1 
      51       3      51      50  # C    O   
      52      12      52      53  # H    NH1 
      53       9      52      54  # CT1  NH1 
      54       8      54      55  # CT1  HB  
      55       7      56      54  # CT1  CT3 
      56      11      56      57  # CT3  HA  
      57      11      56      58  # CT3  HA  
      58      11      56      59  # CT3  HA  
      59       1      60      54  # C    CT1 
      60       2      60      62  # C    NH1 
      61       3      61      60  # C    O   
      62      12      62      63  # H    NH1 
      63       9      62      64  # CT1  NH1 
      64       8      64      65  # CT1  HB  
      65       7      66      64  # CT1  CT3 
      66      11      66      67  # CT3  HA  
      67      11      66      68  # CT3  HA  
      68      11      66      69  # CT3  HA  
      69       1      70      64  # C    CT1 
      70       2      70      72  # C    NH1 
      71       3      71      70  # C    O   
      72      12      72      73  # H    NH1 
      73       9      72      74  # CT1  NH1 
      74       8      74      75  # CT1  HB  
      75       7      76      74  # CT1  CT3 
      76      11      76      77  # CT3  HA  
      77      11      76      78  # CT3  HA  
      78      11      76      79  # CT3  HA  
      79       1      80      74  # C    CT1 
      80       2      80      82  # C    NH1 
      81       3      81      80  # C    O   
      82      12      82      83  # H    NH1 
      83       9      82      84  # CT1  NH1 
      84       8      84      85  # CT1  HB  
      85       7      86      84  # CT1  CT3 
      86      11      86      87  # CT3  HA  
      87      11      86      88  # CT3  HA  
      88      11      86      89  # CT3  HA  
      89       1      90      84  # C    CT1 
      90       2      90      97  # C    NH1 
      91       3      91      90  # C    O   
      92       5      92      94  # CC   NH2 
      93       4      92      99  # CC   CT1 
      94       6      93      92  # CC   O   
      95      13      94      95  # H    NH2 
      96      13      94      96  # H    NH2 
      97      12      97      98  # H    NH1 
      98       9      97      99  # CT1  NH1 
      99       8      99     100  # CT1  HB  
     100       7     101      99  # CT1  CT3 
     101      11     101     102  # CT3  HA  
     102      11     101     103  # CT3  HA  
     103      11     101     104  # CT3  HA  

Angle Coeffs # charmm

       1               52              108                0                0  # C    CT1  CT3 
       2               50            109.5                0                0  # C    CT1  HB  
       3               50              107                0                0  # C    CT1  NH1 
       4             43.7              110                0                0  # C    CT1  NH3 
       5               50              120                0                0  # C    NH1  CT1 
       6               34              123                0                0  # C    NH1  H   
       7               52              108                0                0  # CC   CT1  CT3 
       8               50            109.5                0                0  # CC   CT1  HB  
       9               50              107                0                0  # CC   CT1  NH1 
      10               50              120                0                0  # CC   NH2  H   
      11               80            116.5                0                0  # CT1  C    NH1 
      12               80              121                0                0  # CT1  C    O   
      13               50            116.5               50             2.45  # CT1  CC   NH2 
      14               15              121               50             2.44  # CT1  CC   O   
      15            33.43            110.1            22.53            2.179  # CT1  CT3  HA  
      16               35              117                0                0  # CT1  NH1  H   
      17               30            109.5               20            2.074  # CT1  NH3  HC  
      18               35              111                0                0  # CT3  CT1  HB  
      19               70            113.5                0                0  # CT3  CT1  NH1 
      20             67.7              110                0                0  # CT3  CT1  NH3 
      21               23              120                0                0  # H    NH2  H   
      22             35.5            108.4              5.4            1.802  # HA   CT3  HA  
      23               48              108                0                0  # HB   CT1  NH1 
      24             51.5            107.5                0                0  # HB   CT1  NH3 
      25               44            109.5                0                0  # HC   NH3  HC  
      26               80            122.5                0                0  # NH1  C    O   
      27               75            122.5               50             2.37  # NH2  CC   O   

Angles

       1      24       1       4       5  # HB   CT1  NH3 
       2       4       1       4      10  # C    CT1  NH3 
       3      17       2       1       4  # CT1  NH3  HC  
       4      25       2       1       3  # HC   NH3  HC  
       5      17       3       1       4  # CT1  NH3  HC  
       6      12       4      10      11  # CT1  C    O   
       7      11       4      10      12  # CT1  C    NH1 
       8      15       4       6       9  # CT1  CT3  HA  
       9      15       4       6       8  # CT1  CT3  HA  
      10      15       4       6       7  # CT1  CT3  HA  
      11      18       6       4       5  # CT3  CT1  HB  
      12       1       6       4      10  # C    CT1  CT3 
      13      20       6       4       1  # CT3  CT1  NH3 
      14      22       7       6       9  # HA   CT3  HA  
      15      22       7       6       8  # HA   CT3  HA  
      16      22       8       6       9  # HA   CT3  HA  
      17       2      10       4       5  # C    CT1  HB  
      18      23      12      14      15  # HB   CT1  NH1 
      19       3      12      14      20  # C    CT1  NH1 
      20      26      12      10      11  # NH1  C    O   
      21       6      13      12      10  # C    NH1  H   
      22      16      13      12      14  # CT1  NH1  H   
      23      12      14      20      21  # CT1  C    O   
      24      11      14      20      22  # CT1  C    NH1 
      25      15      14      16      19  # CT1  CT3  HA  
      26      15      14      16      18  # CT1  CT3  HA  
      27      15      14      16      17  # CT1  CT3  HA  
      28       5      14      12      10  # C    NH1  CT1 
      29      18      16      14      15  # CT3  CT1  HB  
      30       1      16      14      20  # C    CT1  CT3 
      31      19      16      14      12  # CT3  CT1  NH1 
      32      22      17      16      19  # HA   CT3  HA  
      33      22      17      16      18  # HA   CT3  HA  
      34      22      18      16      19  # HA   CT3  HA  
      35       2      20      14      15  # C    CT1  HB  
      36      23      22      24      25  # HB   CT1  NH1 
      37       3      22      24      30  # C    CT1  NH1 
      38      26      22      20      21  # NH1  C    O   
      39       6      23      22      20  # C    NH1  H   
      40      16      23      22      24  # CT1  NH1  H   
      41      12      24      30      31  # CT1  C    O   
      42      11      24      30      32  # CT1  C    NH1 
      43      15      24      26      29  # CT1  CT3  HA  
      44      15      24      26      28  # CT1  CT3  HA  
      45      15      24      26      27  # CT1  CT3  HA  
      46       5      24      22      20  # C    NH1  CT1 
      47      18      26      24      25  # CT3  CT1  HB  
      48       1      26      24      30  # C    CT1  CT3 
      49      19      26      24      22  # CT3  CT1  NH1 
      50      22      27      26      29  # HA   CT3  HA  
      51      22      27      26      28  # HA   CT3  HA  
      52      22      28      26      29  # HA   CT3  HA  
      53       2      30      24      25  # C    CT1  HB  
      54      23      32      34      35  # HB   CT1  NH1 
      55       3      32      34      40  # C    CT1  NH1 
      56      26      32      30      31  # NH1  C    O   
      57       6      33      32      30  # C    NH1  H   
      58      16      33      32      34  # CT1  NH1  H   
      59      12      34      40      41  # CT1  C    O   
      60      11      34      40      42  # CT1  C    NH1 
      61      15      34      36      39  # CT1  CT3  HA  
      62      15      34      36      38  # CT1  CT3  HA  
      63      15      34      36      37  # CT1  CT3  HA  
      64       5      34      32      30  # C    NH1  CT1 
      65      18      36      34      35  # CT3  CT1  HB  
      66       1      36      34      40  # C    CT1  CT3 
      67      19      36      34      32  # CT3  CT1  NH1 
      68      22      37      36      39  # HA   CT3  HA  
      69      22      37      36      38  # HA   CT3  HA  
      70      22      38      36      39  # HA   CT3  HA  
      71       2      40      34      35  # C    CT1  HB  
      72      23      42      44      45  # HB   CT1  NH1 
      73       3      42      44      50  # C    CT1  NH1 
      74      26      42      40      41  # NH1  C    O   
      75       6      43      42      40  # C    NH1  H   
      76      16      43      42      44  # CT1  NH1  H   
      77      12      44      50      51  # CT1  C    O   
      78      11      44      50      52  # CT1  C    NH1 
      79      15      44      46      49  # CT1  CT3  HA  
      80      15      44      46      48  # CT1  CT3  HA  
      81      15      44      46      47  # CT1  CT3  HA  
      82       5      44      42      40  # C    NH1  CT1 
      83      18      46      44      45  # CT3  CT1  HB  
      84       1      46      44      50  # C    CT1  CT3 
      85      19      46      44      42  # CT3  CT1  NH1 
      86      22      47      46      49  # HA   CT3  HA  
      87      22      47      46      48  # HA   CT3  HA  
      88      22      48      46      49  # HA   CT3  HA  
      89       2      50      44      45  # C    CT1  HB  
      90      23      52      54      55  # HB   CT1  NH1 
      91       3      52      54      60  # C    CT1  NH1 
      92      26      52      50      51  # NH1  C    O   
      93       6      53      52      50  # C    NH1  H   
      94      16      53      52      54  # CT1  NH1  H   
      95      12      54      60      61  # CT1  C    O   
      96      11      54      60      62  # CT1  C    NH1 
      97      15      54      56      59  # CT1  CT3  HA  
      98      15      54      56      58  # CT1  CT3  HA  
      99      15      54      56      57  # CT1  CT3  HA  
     100       5      54      52      50  # C    NH1  CT1 
     101      18      56      54      55  # CT3  CT1  HB  
     102       1      56      54      60  # C    CT1  CT3 
     103      19      56      54      52  # CT3  CT1  NH1 
     104      22      57      56      59  # HA   CT3  HA  
     105      22      57      56      58  # HA   CT3  HA  
     106      22      58      56      59  # HA   CT3  HA  