LAMMPS data file. CGCMM style. atom_style full generated by VMD/TopoTools v1.9 on Wed Jul 15 15:33:55 EDT 2026
 30 atoms
 20 bonds
 10 angles
 0 dihedrals
 0 impropers
 2 atom types
 1 bond types
 1 angle types
 0 dihedral types
 0 improper types
 -17.5 17.5  xlo xhi
 -22.5 22.5  ylo yhi
 -25.0 25.0  zlo zhi
   0.0  0.0  0.0  xy xz yz

 Pair Coeffs

 1 0.1521 3.1507    # OT
 2 0.0460 0.4000    # HT

 Bond Coeffs

 1 0.9574

 Angle Coeffs

 1 104.52

 Masses

 1 1.007940 # HT
 2 15.999400 # OT

 Atoms # full

1 1 2 -0.834000 12.001385 8.938683 6.301061 # OT TIP3
2 1 1 0.417000 11.364385 9.635681 6.458060 # HT TIP3
3 1 1 0.417000 11.818385 8.288681 6.979060 # HT TIP3
4 2 2 -0.834000 15.786507 13.806712 13.616970 # OT TIP3
5 2 1 0.417000 15.840507 13.838714 14.571976 # HT TIP3
6 2 1 0.417000 16.037506 12.910712 13.392967 # HT TIP3
7 3 2 -0.834000 7.964914 10.333876 0.468152 # OT TIP3
8 3 1 0.417000 8.558914 9.941875 -0.171847 # HT TIP3
9 3 1 0.417000 7.564913 11.069876 0.004155 # HT TIP3
10 4 2 -0.834000 -6.894979 5.457801 -12.425684 # OT TIP3
11 4 1 0.417000 -6.758980 4.512799 -12.485683 # HT TIP3
12 4 1 0.417000 -7.236979 5.595799 -11.542683 # HT TIP3
13 5 2 -0.834000 -2.937490 -7.922605 -8.118053 # OT TIP3
14 5 1 0.417000 -3.845490 -8.059605 -8.388054 # HT TIP3
15 5 1 0.417000 -2.653490 -7.154605 -8.613054 # HT TIP3
16 6 2 -0.834000 -2.318743 11.892015 -1.614044 # OT TIP3
17 6 1 0.417000 -2.264743 10.966015 -1.852044 # HT TIP3
18 6 1 0.417000 -1.977743 11.931015 -0.721044 # HT TIP3
19 7 2 -0.834000 -2.065493 -0.583287 1.678965 # OT TIP3
20 7 1 0.417000 -2.258493 -0.634288 0.742965 # HT TIP3
21 7 1 0.417000 -1.725493 -1.450288 1.901965 # HT TIP3
22 8 2 -0.834000 7.148263 -8.260054 12.544670 # OT TIP3
23 8 1 0.417000 7.799264 -7.993055 13.192671 # HT TIP3
24 8 1 0.417000 6.942263 -9.167056 12.768671 # HT TIP3
25 9 2 -0.834000 6.433400 1.802552 -15.873137 # OT TIP3
26 9 1 0.417000 5.578400 1.422553 -16.074137 # HT TIP3
27 9 1 0.417000 7.041400 1.065552 -15.918139 # HT TIP3
28 10 2 -0.834000 3.311818 2.011126 9.891104 # OT TIP3
29 10 1 0.417000 3.460818 1.855128 10.824109 # HT TIP3
30 10 1 0.417000 3.859818 1.363127 9.449104 # HT TIP3

 Bonds

1 1 1 2
2 1 1 3
3 1 4 5
4 1 4 6
5 1 7 8
6 1 7 9
7 1 10 11
8 1 10 12
9 1 13 14
10 1 13 15
11 1 16 17
12 1 16 18
13 1 19 20
14 1 19 21
15 1 22 23
16 1 22 24
17 1 25 26
18 1 25 27
19 1 28 29
20 1 28 30

 Angles

1 1 2 1 3
2 1 5 4 6
3 1 8 7 9
4 1 11 10 12
5 1 14 13 15
6 1 17 16 18
7 1 20 19 21
8 1 23 22 24
9 1 26 25 27
10 1 29 28 30
