LAMMPS data file 

4 atoms
1 atom types

 -5.0  5.0 xlo xhi
 -5.0  5.0 ylo yhi
-10.0 10.0 zlo zhi

Masses

1 1

Pair Coeffs

1 0.05 1

Atoms

1 1   1.0  1.0 -8.0   0  0  0
2 1  -1.0 -1.0 -6.0   0  0  0
3 1  -1.0  1.0  6.0   0  0 -1
4 1   1.0 -1.0  8.0   0  0 -1

Velocities

1 0.0 0.0 0.0
2 0.0 0.0 0.0
3 0.0 0.0 0.0
4 0.0 0.0 0.0

