# Validated: 26 May 2013-ICMS
shell "rm -f out.colvars.traj"
include inc.minimal
# minimal system config: two groups of two atoms
units real
atom_style atomic
atom_modify map array # XXX this should not be needed

pair_style lj/cut 5.0
read_data data.minimal
Reading data file ...
  orthogonal box = (-5 -5 -10) to (5 5 10)
  4 atoms
  4 velocities

group g1 id 1 2
2 atoms in group g1
group g2 id 3 4
2 atoms in group g2

variable com1z equal xcm(g1,z)
variable com2z equal xcm(g2,z)
variable fcm1z equal fcm(g1,z)
variable fcm2z equal fcm(g2,z)
variable cveng equal f_f1

thermo_style custom step pe v_com1z v_com2z v_fcm1z v_fcm2z v_cveng
thermo 1

fix f1 all colvars minimal.cfg input empty

run 0 post no
Setting up run ...
colvars: ----------------------------------------------------------------------
colvars: # indexFile = "" [default]
colvars: # analysis = off [default]
colvars: # colvarsTrajFrequency = 100 [default]
colvars: # colvarsRestartFrequency = 0 [default]
colvars: # colvarsTrajAppend = off [default]
colvars: The restart output state file will be "rest.colvars.state".
colvars: The final output state file will be "out.colvars.state".
colvars: The trajectory file will be "out.colvars.traj".
colvars: ----------------------------------------------------------------------
colvars:   Initializing a new collective variable.
colvars:   # name = one
colvars:   Initializing a new "distance" component.
colvars:     # componentCoeff = 1 [default]
colvars:     # componentExp = 1 [default]
colvars:     # period = 0 [default]
colvars:     # wrapAround = 0 [default]
colvars:     # forceNoPBC = off [default]
colvars:     # oneSiteSystemForce = off [default]
colvars:       Initializing atom group "group1".
colvars:       # indexGroup = "" [default]
colvars:       # psfSegID =  [default]
colvars:       # atomsFile = "" [default]
colvars:       # dummyAtom = ( 0 , 0 , 0 ) [default]
colvars:       # enableForces = on [default]
colvars:       # disableForces = off [default]
colvars:       # centerReference = off [default]
colvars:       # rotateReference = off [default]
colvars:       # enableFitGradients = on [default]
colvars:       Atom group "group1" defined, 2 atoms initialized: total mass = 2.
colvars:       Initializing atom group "group2".
colvars:       # indexGroup = "" [default]
colvars:       # psfSegID =  [default]
colvars:       # atomsFile = "" [default]
colvars:       # dummyAtom = ( 0 , 0 , 0 ) [default]
colvars:       # enableForces = on [default]
colvars:       # disableForces = off [default]
colvars:       # centerReference = off [default]
colvars:       # rotateReference = off [default]
colvars:       # enableFitGradients = on [default]
colvars:       Atom group "group2" defined, 2 atoms initialized: total mass = 2.
colvars:   All components initialized.
colvars:   # width = 1 [default]
colvars:   # lowerBoundary = 0 [default]
colvars:   # lowerWallConstant = 0 [default]
colvars:   # upperBoundary = 0 [default]
colvars:   # upperWallConstant = 0 [default]
colvars:   # expandBoundaries = off [default]
colvars:   # extendedLagrangian = off [default]
colvars:   # outputValue = on [default]
colvars:   # outputVelocity = off [default]
colvars:   # outputSystemForce = off [default]
colvars:   # outputAppliedForce = off [default]
colvars: ----------------------------------------------------------------------
colvars: Collective variables initialized, 1 in total.
colvars: Collective variables biases initialized, 0 in total.
colvars: ----------------------------------------------------------------------
colvars: Restarting from file "empty.colvars.state".
colvars: Error: in reading restart configuration for collective variable "one".
ERROR on proc 0: Fatal error in the collective variables module.
 (../colvarproxy_lammps.cpp)
