LAMMPS data file via write_data, version 11 Jul 2013-ICMS, timestep = 200

2004 atoms
14 atom types
1365 bonds
18 bond types
786 angles
31 angle types
207 dihedrals
21 dihedral types
12 impropers
2 improper types

3.6840193999999997e+01 6.4211560000000006e+01 xlo xhi
4.1013691000000001e+01 6.8385058000000001e+01 ylo yhi
2.9768094999999999e+01 5.7139462000000002e+01 zlo zhi

Masses

1 12.011
2 12.011
3 15.999
4 1.008
5 14.007
6 12.011
7 12.011
8 12.011
9 15.999
10 1.008
11 1.008
12 32.066
13 16
14 1.01

Pair Coeffs

1 0.11 3.56359 0.11 3.56359
2 0.08 3.6705 0.01 3.38542
3 0.12 3.02906 0.12 2.49452
4 0.022 2.35197 0.022 2.35197
5 0.2 3.29632 0.2 2.76179
6 0.02 4.05359 0.01 3.38542
7 0.055 3.87541 0.01 3.38542
8 0.07 3.55005 0.07 3.55005
9 0.1521 3.15378 0.1521 3.15378
10 0.046 0.400014 0.046 0.400014
11 0.03 2.42004 0.03 2.42004
12 0.45 3.56359 0.45 3.56359
13 0.1521 3.15057 0.1521 3.15057
14 0.046 0.400014 0.046 0.400014

Bond Coeffs

1 250 1.49
2 620 1.23
3 370 1.345
4 322 1.111
5 320 1.43
6 440 0.997
7 222.5 1.538
8 330 1.08
9 230 1.49
10 309 1.111
11 305 1.375
12 340 1.08
13 334.3 1.411
14 545 0.96
15 222.5 1.53
16 198 1.818
17 240 1.816
18 450 0.9572

Angle Coeffs

1 33 109.5 30 2.163
2 50 120 0 0
3 34 123 0 0
4 80 121 0 0
5 80 116.5 0 0
6 80 122.5 0 0
7 35.5 108.4 5.4 1.802
8 50 107 0 0
9 70 113.5 0 0
10 48 108 0 0
11 35 117 0 0
12 51.8 107.5 0 0
13 33.43 110.1 22.53 2.179
14 52 108 0 0
15 50 109.5 0 0
16 35 111 0 0
17 45.8 122.3 0 0
18 49.3 107.5 0 0
19 40 120 35 2.4162
20 30 120 22 2.1525
21 45.2 120 0 0
22 65 108 0 0
23 35.5 109 5.4 1.802
24 36 115 0 0
25 58.35 113.5 11.16 2.561
26 58 114.5 0 0
27 26.5 110.1 22.53 2.179
28 34 95 0 0
29 46.1 111.3 0 0
30 51.5 109.5 0 0
31 55 104.52 0 0

Dihedral Coeffs

1 0.2 1 180 1
2 1.8 1 0 1
3 0 1 0 1
4 1.6 1 0 0.5
5 2.5 2 180 0.5
6 2.5 2 180 1
7 0.6 1 0 1
8 0.2 3 0 1
9 0.23 2 180 1
10 0.04 3 0 1
11 1.4 1 0 1
12 3.1 2 180 1
13 4.2 2 180 1
14 3.1 2 180 0.5
15 0.99 2 180 1
16 2.4 2 180 1
17 0.195 3 0 1
18 0.24 1 180 0.5
19 0.37 3 0 0.5
20 0.28 3 0 1
21 0.01 3 0 1

Improper Coeffs

1 120 0
2 20 0

Atoms

187 36 13 -8.3399999999999996e-01 4.0042997638677214e+01 4.2243316404522588e+01 3.1873215772753902e+01 0 0 1
188 36 14 4.1699999999999998e-01 4.0606568567690545e+01 4.1851704859356055e+01 3.1205936881119818e+01 0 0 1
189 36 14 4.1699999999999998e-01 4.0376593908251955e+01 4.3134577639836692e+01 3.1976158791560501e+01 0 0 1
460 127 13 -8.3399999999999996e-01 3.8372785860192138e+01 4.5078283859716670e+01 5.6741194605152060e+01 0 1 2
461 127 14 4.1699999999999998e-01 3.8971623168263093e+01 4.4881314822822112e+01 3.0090125901750206e+01 0 1 3
462 127 14 4.1699999999999998e-01 3.7663575393759011e+01 4.4442786609075469e+01 5.6838116733091738e+01 0 1 2
649 190 13 -8.3399999999999996e-01 4.3673348246498129e+01 4.4836984279621042e+01 3.0149022148348298e+01 1 0 1
651 190 14 4.1699999999999998e-01 4.3754289139919834e+01 4.5757492655888363e+01 3.0398706211840871e+01 1 0 1
679 200 13 -8.3399999999999996e-01 3.7604132952608033e+01 4.5587731846797645e+01 3.6139758796588580e+01 0 0 2
680 200 14 4.1699999999999998e-01 3.8345825198818943e+01 4.5348187720030836e+01 3.5584112765839933e+01 0 0 2
751 224 13 -8.3399999999999996e-01 4.2231583409000876e+01 4.1788046710150823e+01 3.4699798171079486e+01 0 1 0
752 224 14 4.1699999999999998e-01 4.2042597145715249e+01 4.1091661557121292e+01 3.4070859005316173e+01 0 1 0
753 224 14 4.1699999999999998e-01 4.1372040181018455e+01 4.2062972242842307e+01 3.5018910653479274e+01 0 1 0
967 296 13 -8.3399999999999996e-01 4.3975155893290292e+01 4.1419076301487046e+01 3.1269536234572072e+01 0 1 0
968 296 14 4.1699999999999998e-01 4.3947805030023744e+01 4.2244527599876122e+01 3.1753384884052291e+01 0 1 0
997 306 13 -8.3399999999999996e-01 4.0302018660946942e+01 4.5857515004944410e+01 3.4861669134400486e+01 1 1 0
998 306 14 4.1699999999999998e-01 4.0935256076180607e+01 4.6445198320998486e+01 3.5273818652960891e+01 1 1 0
999 306 14 4.1699999999999998e-01 4.0412727932105469e+01 4.6005962660660018e+01 3.3922552762275522e+01 1 1 0
1274 398 14 4.1699999999999998e-01 4.2899329954778956e+01 4.7663818201024327e+01 3.5704282038395760e+01 0 1 0
1627 516 13 -8.3399999999999996e-01 3.8376511517531604e+01 6.8237253179352294e+01 3.3600167371534084e+01 2 -1 0
1629 516 14 4.1699999999999998e-01 3.8954478451945143e+01 4.1212554848435026e+01 3.2920455891027139e+01 2 0 0
1792 571 13 -8.3399999999999996e-01 4.0671008913199998e+01 4.5032358788794120e+01 3.1090134018205688e+01 0 0 1
1793 571 14 4.1699999999999998e-01 4.1565643105624233e+01 4.4961508569279708e+01 3.0757205543999085e+01 0 0 1
1794 571 14 4.1699999999999998e-01 4.0674442348668379e+01 4.5829751663289237e+01 3.1619644290010921e+01 0 0 1
1996 639 13 -8.3399999999999996e-01 3.9596980703346283e+01 4.2233987327129228e+01 3.5808606753476759e+01 0 0 0
1998 639 14 4.1699999999999998e-01 3.9200868096099931e+01 4.1955118975414393e+01 3.4983039150350848e+01 0 0 0
422 114 14 4.1699999999999998e-01 4.3106996573827082e+01 4.2895434579957907e+01 3.3823799656502850e+01 -1 -1 1
945 288 14 4.1699999999999998e-01 3.7758000387341106e+01 4.2673814707168667e+01 3.3252168823370866e+01 0 1 0
1804 575 13 -8.3399999999999996e-01 4.1544511917620191e+01 4.1164444308344564e+01 5.6899121972022520e+01 1 0 -1
650 190 14 4.1699999999999998e-01 4.4135778998504499e+01 4.4359874690426388e+01 3.0838047614793275e+01 1 0 1
196 39 13 -8.3399999999999996e-01 4.4426438299202808e+01 4.7663933994192881e+01 3.4584619477917620e+01 -2 1 1
197 39 14 4.1699999999999998e-01 4.5117639720468553e+01 4.7112996120767868e+01 3.4217273699688576e+01 -2 1 1
421 114 13 -8.3399999999999996e-01 4.3613931533175020e+01 4.3442332797702612e+01 3.3223672774580542e+01 -1 -1 1
423 114 14 4.1699999999999998e-01 4.4412259544961302e+01 4.3653530635931176e+01 3.3707716148428190e+01 -1 -1 1
553 158 13 -8.3399999999999996e-01 4.6138571480764121e+01 4.2082244591006649e+01 2.9869361444442568e+01 -1 0 1
554 158 14 4.1699999999999998e-01 4.5434743410167236e+01 4.1766119435323930e+01 3.0435861647825277e+01 -1 0 1
555 158 14 4.1699999999999998e-01 4.6858479846277170e+01 4.1468653581056621e+01 3.0015885460169400e+01 -1 0 1
604 175 13 -8.3399999999999996e-01 4.7994582686384042e+01 4.2558919335635800e+01 3.4197831300118565e+01 -1 -1 0
605 175 14 4.1699999999999998e-01 4.8396545566687294e+01 4.2320097823245113e+01 3.5033068995832508e+01 -1 -1 0
606 175 14 4.1699999999999998e-01 4.8451711787664884e+01 4.3356400145929243e+01 3.3930830808809645e+01 -1 -1 0
694 205 13 -8.3399999999999996e-01 4.8899979919894875e+01 4.5154223023835499e+01 3.4354761062731029e+01 0 0 0
695 205 14 4.1699999999999998e-01 4.8589315062849067e+01 4.6056204742032591e+01 3.4276339035571404e+01 0 0 0
696 205 14 4.1699999999999998e-01 4.9544457318497216e+01 4.5183004601298947e+01 3.5061903632558582e+01 0 0 0
841 254 13 -8.3399999999999996e-01 4.5981979970473432e+01 4.6279942052601214e+01 3.3076050876821547e+01 1 0 0
842 254 14 4.1699999999999998e-01 4.6232384156394062e+01 4.5515676631283881e+01 3.2556990089992880e+01 1 0 0
843 254 14 4.1699999999999998e-01 4.6803719620434542e+01 4.6746889021464497e+01 3.3227499386413868e+01 1 0 0
1170 363 14 4.1699999999999998e-01 4.9758603240328249e+01 4.1655161540631561e+01 3.0958911664478222e+01 0 -1 0
1228 383 13 -8.3399999999999996e-01 4.6948990722791493e+01 4.4812276532162443e+01 3.0648443819808175e+01 0 0 1
1229 383 14 4.1699999999999998e-01 4.7030603472270066e+01 4.3872215716002778e+01 3.0487654490006975e+01 0 0 1
1387 436 13 -8.3399999999999996e-01 4.8514290702757236e+01 6.7741113705616968e+01 3.0405576141897949e+01 2 0 0
1984 635 13 -8.3399999999999996e-01 4.9729111095713122e+01 4.5267237652350765e+01 3.1505347152878855e+01 1 2 1
1985 635 14 4.1699999999999998e-01 4.9808336632900449e+01 4.5139323645140955e+01 3.2450646482744354e+01 1 2 1
1986 635 14 4.1699999999999998e-01 4.8818128706289876e+01 4.5048543935918055e+01 3.1309097030544088e+01 1 2 1
165 28 14 4.1699999999999998e-01 4.4086229984932523e+01 4.6818935856810896e+01 3.2329878086811270e+01 -1 0 2
1819 580 13 -8.3399999999999996e-01 4.8156964156151481e+01 4.7766199827126947e+01 3.4080741855211507e+01 0 0 1
1821 580 14 4.1699999999999998e-01 4.8864243591312807e+01 4.8168868690042629e+01 3.4584572071513868e+01 0 0 1
706 209 13 -8.3399999999999996e-01 4.9022866093500753e+01 4.2027887881355241e+01 3.6628400874436288e+01 -1 0 0
152 24 14 4.1699999999999998e-01 5.6081137672591794e+01 4.6596129878621007e+01 3.0482582247563421e+01 0 1 2
338 86 14 4.1699999999999998e-01 5.1251568194475652e+01 4.7687561057233914e+01 3.6465796450590979e+01 0 0 1
667 196 13 -8.3399999999999996e-01 5.4679992951275032e+01 4.3300502908570834e+01 3.5206597133488721e+01 0 0 -1
668 196 14 4.1699999999999998e-01 5.5550053836476394e+01 4.3371577157608598e+01 3.5599232347232444e+01 0 0 -1
669 196 14 4.1699999999999998e-01 5.4628876633811068e+01 4.4039949029458278e+01 3.4600935614632881e+01 0 0 -1
1036 319 13 -8.3399999999999996e-01 5.5834912930796861e+01 4.6210702519262021e+01 3.5294497062115489e+01 -1 0 1
1037 319 14 4.1699999999999998e-01 5.5244151069995240e+01 4.6895798925164065e+01 3.5607352176924167e+01 -1 0 1
1038 319 14 4.1699999999999998e-01 5.5498857874396052e+01 4.5981272814363074e+01 3.4428090309691434e+01 -1 0 1
1168 363 13 -8.3399999999999996e-01 5.0568160907113295e+01 4.2164277712030533e+01 3.0999508306224588e+01 0 -1 0
1169 363 14 4.1699999999999998e-01 5.0659467836821086e+01 4.2396599859436570e+01 3.1923584101824623e+01 0 -1 0
1253 391 14 4.1699999999999998e-01 5.6296875541224210e+01 4.2408374863617219e+01 3.7054187483461213e+01 -1 2 1
1311 410 14 4.1699999999999998e-01 5.4231330430275051e+01 4.1493278522352590e+01 3.5102488144417805e+01 0 1 0
1480 467 13 -8.3399999999999996e-01 5.3010229861708481e+01 4.3900815533038042e+01 3.0423660440569613e+01 0 1 0
1481 467 14 4.1699999999999998e-01 5.2453079337528138e+01 4.3167616413461346e+01 3.0684876292572106e+01 0 1 0
1482 467 14 4.1699999999999998e-01 5.3891255744324724e+01 4.3640361889537495e+01 3.0692345355962054e+01 0 1 0
1648 523 13 -8.3399999999999996e-01 5.4100978612885271e+01 4.5205679420013418e+01 3.3284580927542223e+01 0 0 1
1649 523 14 4.1699999999999998e-01 5.3257151202313842e+01 4.5189094646760942e+01 3.2833016913607480e+01 0 0 1
1650 523 14 4.1699999999999998e-01 5.4558048779999623e+01 4.5959411194486080e+01 3.2911481603317789e+01 0 0 1
1756 559 13 -8.3399999999999996e-01 5.1967224841213117e+01 4.3455633608394947e+01 3.5741842969722342e+01 0 1 1
1757 559 14 4.1699999999999998e-01 5.1710207644079524e+01 4.2924381493214753e+01 3.4988221754020124e+01 0 1 1
1758 559 14 4.1699999999999998e-01 5.2905422790239953e+01 4.3603281038271220e+01 3.5622610151251756e+01 0 1 1
1813 578 13 -8.3399999999999996e-01 5.2255876579492941e+01 4.6530331107240606e+01 3.0504340333361803e+01 1 0 1
1814 578 14 4.1699999999999998e-01 5.2563687306364393e+01 4.5623976530183398e+01 3.0505370608588571e+01 1 0 1
1815 578 14 4.1699999999999998e-01 5.1335586822131397e+01 4.6471519889524529e+01 3.0760930551668292e+01 1 0 1
1817 579 14 4.1699999999999998e-01 5.6685114118669020e+01 4.5011388071297588e+01 3.6291099972153084e+01 0 0 0
1909 610 13 -8.3399999999999996e-01 5.5448018447035139e+01 4.3186043693038755e+01 3.1199747301457201e+01 0 0 0
1910 610 14 4.1699999999999998e-01 5.5809215528234532e+01 4.2728989724643071e+01 3.1959266417246241e+01 0 0 0
1911 610 14 4.1699999999999998e-01 5.5878481247853024e+01 4.4040958484260472e+01 3.1207049149518053e+01 0 0 0
154 25 13 -8.3399999999999996e-01 5.6952906005110286e+01 4.5551121473048198e+01 3.1957760836224708e+01 -1 0 1
156 25 14 4.1699999999999998e-01 5.6922914975515731e+01 4.4938773700010806e+01 3.2692854193766046e+01 -1 0 1
1004 308 14 4.1699999999999998e-01 5.7690735169316788e+01 4.7329516137742914e+01 3.5113927403924741e+01 0 0 1
1252 391 13 -8.3399999999999996e-01 5.6247802677300548e+01 4.1453926862846998e+01 3.7107621288518530e+01 -1 2 1
1816 579 13 -8.3399999999999996e-01 5.6945337196900887e+01 4.4172304901402704e+01 3.6671172742943632e+01 0 0 0
103 8 13 -8.3399999999999996e-01 6.1049532203896518e+01 4.7543156011047564e+01 3.6442007067750389e+01 -1 -1 1
104 8 14 4.1699999999999998e-01 6.1622742246511081e+01 4.8287762894362331e+01 3.6259736499548495e+01 -1 -1 1
105 8 14 4.1699999999999998e-01 6.0168712759309550e+01 4.7866293270567589e+01 3.6252347218540805e+01 -1 -1 1
155 25 14 4.1699999999999998e-01 5.7745911996405198e+01 4.6066111586626327e+01 3.2106613183473698e+01 -1 0 1
241 54 13 -8.3399999999999996e-01 6.2266655160513821e+01 4.5164608278865167e+01 3.5503381124659462e+01 -1 1 1
242 54 14 4.1699999999999998e-01 6.1671453989034838e+01 4.5838099652638071e+01 3.5832589803711713e+01 -1 1 1
243 54 14 4.1699999999999998e-01 6.3140666633819123e+01 4.5533191361831065e+01 3.5631768267000574e+01 -1 1 1
247 56 13 -8.3399999999999996e-01 5.9200603907602861e+01 4.2303157708695259e+01 3.1720082139038379e+01 -1 1 -1
248 56 14 4.1699999999999998e-01 5.9284308526702013e+01 4.2493632439206792e+01 3.0785768802129301e+01 -1 1 -1
249 56 14 4.1699999999999998e-01 5.9727631571063171e+01 4.1515164067471829e+01 3.1852518003445091e+01 -1 1 -1
323 81 14 4.1699999999999998e-01 6.2217878167015186e+01 4.1123397307095352e+01 3.0737368736481493e+01 0 0 2
643 188 13 -8.3399999999999996e-01 5.9339264693586415e+01 4.6809035869533645e+01 3.2425905011007877e+01 -1 0 -1
644 188 14 4.1699999999999998e-01 6.0040776868870751e+01 4.6157886353861073e+01 3.2414919375089802e+01 -1 0 -1
645 188 14 4.1699999999999998e-01 5.9315491057957907e+01 4.7120942446390053e+01 3.3330550174750869e+01 -1 0 -1
943 288 13 -8.3399999999999996e-01 3.7076668429148263e+01 4.3236150417473993e+01 3.2883661189228846e+01 0 1 0
944 288 14 4.1699999999999998e-01 6.3856680877133059e+01 4.2633049052769366e+01 3.2433325454655332e+01 -1 1 0
1003 308 13 -8.3399999999999996e-01 5.8445271561889207e+01 4.7856755293638678e+01 3.4851392382770392e+01 0 0 1
1126 349 13 -8.3399999999999996e-01 6.1624078984962210e+01 4.5231258365065131e+01 3.2951213409915070e+01 0 0 0
1127 349 14 4.1699999999999998e-01 6.2423474066358999e+01 4.4780707530103065e+01 3.2678808287406547e+01 0 0 0
1128 349 14 4.1699999999999998e-01 6.1725876233895740e+01 4.5350838398127145e+01 3.3895444374220389e+01 0 0 0
1204 375 13 -8.3399999999999996e-01 5.7520761544105781e+01 4.3329470021753927e+01 3.3599709438161959e+01 0 -1 0
1205 375 14 4.1699999999999998e-01 5.7873951066634582e+01 4.2997392421293640e+01 3.4425064205406770e+01 0 -1 0
1206 375 14 4.1699999999999998e-01 5.8198080396543517e+01 4.3133021641171091e+01 3.2952501852880467e+01 0 -1 0
1690 537 13 -8.3399999999999996e-01 5.9878339875367658e+01 4.2373197579715715e+01 3.5089705414433645e+01 -1 1 1
1691 537 14 4.1699999999999998e-01 5.9819493564426999e+01 4.3325012762723382e+01 3.5172265934505809e+01 -1 1 1
1692 537 14 4.1699999999999998e-01 6.0799402295783828e+01 4.2174214054711030e+01 3.5257862192048655e+01 -1 1 1
1767 562 14 4.1699999999999998e-01 5.8537384416056163e+01 6.8050881709841065e+01 3.4897930866691802e+01 0 -1 1
1948 623 13 -8.3399999999999996e-01 6.2755575202247549e+01 4.2572306600767703e+01 3.5339681879326143e+01 -1 0 -1
1949 623 14 4.1699999999999998e-01 6.2653355062123424e+01 4.3522248708878756e+01 3.5281425519412217e+01 -1 0 -1
1950 623 14 4.1699999999999998e-01 6.3334804497678853e+01 4.2348153648972392e+01 3.4611342003520029e+01 -1 0 -1
1955 625 14 4.1699999999999998e-01 6.1905426234556536e+01 4.3680908025498780e+01 2.9799037543258112e+01 1 1 1
863 261 14 4.1699999999999998e-01 3.7789661348815464e+01 4.7263544941021692e+01 3.5358575454756085e+01 -1 0 0
23 1 11 1.1500000000000000e-01 4.1346911069528488e+01 5.3620715391582515e+01 3.5868947100168072e+01 0 0 0
25 1 11 1.1500000000000000e-01 4.0877897121546809e+01 5.3305978604782254e+01 3.3432632054840809e+01 0 0 0
164 28 14 4.1699999999999998e-01 4.2927828789622630e+01 4.7765339427265168e+01 3.2096808176152308e+01 -1 0 2
355 92 13 -8.3399999999999996e-01 3.7480189461487953e+01 5.2615373741144367e+01 3.3027442142791223e+01 0 -1 0
356 92 14 4.1699999999999998e-01 3.7022593798237367e+01 5.1832101107936083e+01 3.2721958256990483e+01 0 -1 0
357 92 14 4.1699999999999998e-01 3.8344678076646950e+01 5.2562558110152324e+01 3.2619882458498594e+01 0 -1 0
400 107 13 -8.3399999999999996e-01 4.2496191122111973e+01 5.1172754694107383e+01 3.5320593243944593e+01 1 1 1
401 107 14 4.1699999999999998e-01 4.1604406540495866e+01 5.0852428580704895e+01 3.5456027693754521e+01 1 1 1
559 160 13 -8.3399999999999996e-01 4.0258487673548800e+01 4.7312759564394419e+01 3.2458125873699373e+01 -1 0 0
560 160 14 4.1699999999999998e-01 3.9533849289641644e+01 4.7898966311756247e+01 3.2240202454605679e+01 -1 0 0
561 160 14 4.1699999999999998e-01 4.0947542387725498e+01 4.7892989492627294e+01 3.2781799215564490e+01 -1 0 0
582 167 14 4.1699999999999998e-01 4.2635334553594120e+01 5.4036840874477967e+01 3.1083027622310873e+01 -1 0 0
700 207 13 -8.3399999999999996e-01 3.8498047666962172e+01 4.9343742921034533e+01 3.1216916585197982e+01 2 -1 0
701 207 14 4.1699999999999998e-01 3.8365083323650232e+01 4.8676647584758648e+01 3.0543469913525161e+01 2 -1 0
702 207 14 4.1699999999999998e-01 3.8635559686868710e+01 5.0154776940218220e+01 3.0727485202330438e+01 2 -1 0
769 230 13 -8.3399999999999996e-01 6.3844656402026835e+01 4.9672724951316376e+01 3.3119090027400794e+01 -1 1 0
770 230 14 4.1699999999999998e-01 3.6906755080491216e+01 4.9075856459577444e+01 3.3729079540233627e+01 0 1 0
771 230 14 4.1699999999999998e-01 3.7016781308935670e+01 4.9647446840693689e+01 3.2331555778618451e+01 0 1 0
862 261 13 -8.3399999999999996e-01 3.7985785156487694e+01 4.8005127569450266e+01 3.4786017261664057e+01 -1 0 0
864 261 14 4.1699999999999998e-01 3.8860378947439671e+01 4.7819611986603938e+01 3.4444110092195679e+01 -1 0 0
1414 445 13 -8.3399999999999996e-01 4.1963164564072684e+01 4.9119624966265519e+01 3.3284583592446488e+01 1 1 0
1415 445 14 4.1699999999999998e-01 4.2588870081197868e+01 4.9656503060578721e+01 3.3770880121393176e+01 1 1 0
1416 445 14 4.1699999999999998e-01 4.1478957405465486e+01 4.9744720788242176e+01 3.2745110896594973e+01 1 1 0
1546 489 13 -8.3399999999999996e-01 4.1515763408733754e+01 5.0561570456755149e+01 3.0852189791989915e+01 0 0 1
1547 489 14 4.1699999999999998e-01 4.0689813033586248e+01 5.1044480921410774e+01 3.0881111230455641e+01 0 0 1
1548 489 14 4.1699999999999998e-01 4.2005494972505133e+01 5.0966376878548303e+01 3.0136280392055735e+01 0 0 1
1606 509 13 -8.3399999999999996e-01 3.7856823630330013e+01 5.2396852926766321e+01 3.5828791630132173e+01 2 0 -1
1607 509 14 4.1699999999999998e-01 3.7506480107872200e+01 5.3230370339201848e+01 3.6143022556803999e+01 2 0 -1
1608 509 14 4.1699999999999998e-01 3.8068824657945584e+01 5.2557040782942359e+01 3.4909211781248281e+01 2 0 -1
1918 613 13 -8.3399999999999996e-01 3.9302366717569349e+01 5.2450639859296082e+01 3.1034067014132766e+01 2 1 0
1919 613 14 4.1699999999999998e-01 3.8811217056835950e+01 5.2325356397034795e+01 3.0222089980381721e+01 2 1 0
1920 613 14 4.1699999999999998e-01 3.9452353943162365e+01 5.3394872760136167e+01 3.1080561173244188e+01 2 1 0
1977 632 14 4.1699999999999998e-01 6.4114554521923779e+01 5.4262869396679392e+01 3.3361480999885060e+01 -1 0 0
580 167 13 -8.3399999999999996e-01 4.3337460548212256e+01 5.3757177458436239e+01 3.1670427487943154e+01 -1 0 0
13 1 8 -1.1500000000000000e-01 4.0898583409434892e+01 5.4411955169381400e+01 3.5286417334352144e+01 0 0 0
15 1 8 -1.1500000000000000e-01 4.0557906780773756e+01 5.4200404381057346e+01 3.3946448817032454e+01 0 0 0
198 39 14 4.1699999999999998e-01 4.4888140710340707e+01 4.8423879007704357e+01 3.4938946296738393e+01 -2 1 1
163 28 13 -8.3399999999999996e-01 4.3522995807563113e+01 4.7170589566788173e+01 3.1640429692009537e+01 -1 0 2
402 107 14 4.1699999999999998e-01 4.2947776647297466e+01 5.0980087231327538e+01 3.6142286408744276e+01 1 1 1
112 11 13 -8.3399999999999996e-01 4.4511158484864225e+01 5.2303359277945226e+01 3.3945355039231380e+01 0 -1 1
113 11 14 4.1699999999999998e-01 4.4186732706550373e+01 5.2917886203879377e+01 3.3287074525431450e+01 0 -1 1
114 11 14 4.1699999999999998e-01 4.3729336907046800e+01 5.2032104130657885e+01 3.4426403682512294e+01 0 -1 1
221 47 14 4.1699999999999998e-01 4.6971809823367174e+01 4.8397595893570013e+01 3.6820743398239266e+01 0 0 1
415 112 13 -8.3399999999999996e-01 4.7179459382965675e+01 4.9649088231030461e+01 3.2248514824906259e+01 0 0 0
416 112 14 4.1699999999999998e-01 4.7666267020193501e+01 5.0454258943113047e+01 3.2072582681778790e+01 0 0 0
417 112 14 4.1699999999999998e-01 4.6592400340011110e+01 4.9554818976207251e+01 3.1498377474561206e+01 0 0 0
581 167 14 4.1699999999999998e-01 4.4135631877259272e+01 5.3845597617578264e+01 3.1149529058806607e+01 -1 0 0
749 223 14 4.1699999999999998e-01 5.1059909628212836e+01 4.9248593375988534e+01 3.0785351504424799e+01 0 -1 0
750 223 14 4.1699999999999998e-01 5.0168177885040947e+01 5.0328460663772816e+01 3.1360325865549921e+01 0 -1 0
801 240 14 4.1699999999999998e-01 4.7694623914154057e+01 5.1657975876505283e+01 3.5778002706577752e+01 0 -1 1
1041 320 14 4.1699999999999998e-01 4.7483917079137072e+01 5.4605565683655968e+01 3.4780385386134412e+01 -1 -1 2
1153 358 13 -8.3399999999999996e-01 4.4898660988387320e+01 4.9715534511631773e+01 3.0115056629219680e+01 0 2 1
1154 358 14 4.1699999999999998e-01 4.4258040234007581e+01 4.9503470313159163e+01 3.0793926177620079e+01 0 2 1
1327 416 13 -8.3399999999999996e-01 4.8409019159744695e+01 5.2148034043127673e+01 3.1867182015274988e+01 0 -1 0
1328 416 14 4.1699999999999998e-01 4.9307530474644267e+01 5.2468961933224413e+01 3.1944096734442720e+01 0 -1 0
1329 416 14 4.1699999999999998e-01 4.8103491864440059e+01 5.2489100472241688e+01 3.1026611030849644e+01 0 -1 0
1591 504 13 -8.3399999999999996e-01 5.0361040584562240e+01 5.3098731383067189e+01 2.9896346229492977e+01 -1 0 1
1820 580 14 4.1699999999999998e-01 4.7933992328415584e+01 4.8418412138748430e+01 3.3416562622894958e+01 0 0 1
1828 583 13 -8.3399999999999996e-01 4.7014845569101205e+01 5.3195043045250962e+01 3.4135974163534591e+01 2 0 0
1829 583 14 4.1699999999999998e-01 4.7395007879836236e+01 5.2866519841943550e+01 3.3321246616442821e+01 2 0 0
1830 583 14 4.1699999999999998e-01 4.6132135773566382e+01 5.2825325155840765e+01 3.4155124468156579e+01 2 0 0
1951 624 13 -8.3399999999999996e-01 4.5792826560843068e+01 4.9957529929007706e+01 3.4754947172994633e+01 1 -1 1
1952 624 14 4.1699999999999998e-01 4.6188210449114031e+01 4.9956870356304158e+01 3.3883222975310993e+01 1 -1 1
1953 624 14 4.1699999999999998e-01 4.5149114414760305e+01 5.0665361889344709e+01 3.4725961707067860e+01 1 -1 1
748 223 13 -8.3399999999999996e-01 5.0826115636390632e+01 4.9678783540824156e+01 3.1607853808189493e+01 0 -1 0
1460 460 14 4.1699999999999998e-01 5.0225650210445416e+01 5.4107497057237197e+01 3.2609120500329674e+01 0 1 0
586 169 13 -8.3399999999999996e-01 4.6428928570306759e+01 5.1784950086675558e+01 5.7070634165571860e+01 0 0 0
588 169 14 4.1699999999999998e-01 4.5878995718130156e+01 5.1024393708664071e+01 2.9887323557057893e+01 0 0 1
337 86 13 -8.3399999999999996e-01 5.1703335525696367e+01 4.8442159645252708e+01 3.6088024057243402e+01 0 0 1
1461 460 14 4.1699999999999998e-01 5.1401634586653778e+01 5.3397931266581175e+01 3.3245885180097979e+01 0 1 0
199 40 13 -8.3399999999999996e-01 5.3075656127698984e+01 5.0922683388495010e+01 3.5356661531763613e+01 -1 1 0
200 40 14 4.1699999999999998e-01 5.2364658421650134e+01 5.0331560724750538e+01 3.5604224271080156e+01 -1 1 0
201 40 14 4.1699999999999998e-01 5.2676228558784551e+01 5.1792561745325472e+01 3.5358674674465753e+01 -1 1 0
208 43 13 -8.3399999999999996e-01 5.4487631679138680e+01 4.8444200965900102e+01 3.5984664540507865e+01 -1 0 1
209 43 14 4.1699999999999998e-01 5.4521248815908727e+01 4.9246247095519166e+01 3.5463297724096421e+01 -1 0 1
339 86 14 4.1699999999999998e-01 5.1940437995627292e+01 4.8162049356047611e+01 3.5203972001117499e+01 0 0 1
397 106 13 -8.3399999999999996e-01 5.3352211443076406e+01 5.0602267155495660e+01 3.2371914067659937e+01 -1 0 1
398 106 14 4.1699999999999998e-01 5.2494351900577172e+01 5.0179567601196183e+01 3.2331491153927672e+01 -1 0 1
399 106 14 4.1699999999999998e-01 5.3400822667108557e+01 5.0962375159856684e+01 3.3257459816179129e+01 -1 0 1
481 134 13 -8.3399999999999996e-01 5.1893552780306230e+01 4.7803768106763428e+01 3.3494553945865789e+01 0 0 1
482 134 14 4.1699999999999998e-01 5.1283394144762561e+01 4.8266310067551522e+01 3.2920102809830468e+01 0 0 1
483 134 14 4.1699999999999998e-01 5.2664207421774904e+01 4.7646302991750581e+01 3.2949091781667782e+01 0 0 1
498 139 14 4.1699999999999998e-01 5.6909708168824608e+01 5.4714089630371753e+01 3.0386820603041134e+01 0 -1 0
691 204 13 -8.3399999999999996e-01 5.1874577660703054e+01 5.3172422123475393e+01 3.5112907512594731e+01 -1 -1 1
693 204 14 4.1699999999999998e-01 5.2377849816933619e+01 5.3980963724562365e+01 3.5208849392919724e+01 -1 -1 1
712 211 13 -8.3399999999999996e-01 5.6026533813359912e+01 5.0332675343257485e+01 3.4380439801850407e+01 -1 0 0
713 211 14 4.1699999999999998e-01 5.6692387233358438e+01 5.1019754223127542e+01 3.4408561291364236e+01 -1 0 0
714 211 14 4.1699999999999998e-01 5.5429681690367879e+01 5.0605278130001118e+01 3.3683526786042144e+01 -1 0 0
964 295 13 -8.3399999999999996e-01 5.7264208550943899e+01 5.4448471199285692e+01 3.2126976274942777e+01 0 -1 0
970 297 13 -8.3399999999999996e-01 5.3753821049113903e+01 5.2291915952385239e+01 5.7017387017818670e+01 -2 1 -1
971 297 14 4.1699999999999998e-01 5.3161293327782303e+01 5.1719455008723031e+01 3.0133286150814641e+01 -2 1 0
972 297 14 4.1699999999999998e-01 5.3391830206426114e+01 5.3169885667996553e+01 5.7137233282967884e+01 -2 1 -1
1459 460 13 -8.3399999999999996e-01 5.0953527419538048e+01 5.3519036101519809e+01 3.2408767823979915e+01 0 1 0
1561 494 13 -8.3399999999999996e-01 5.4602770498019460e+01 4.7877839941576781e+01 3.2280643549709794e+01 1 -2 2
1562 494 14 4.1699999999999998e-01 5.4817822172476951e+01 4.7540632075595624e+01 3.1411002511523272e+01 1 -2 2
1563 494 14 4.1699999999999998e-01 5.4872010944416509e+01 4.8796043213417406e+01 3.2255335717541797e+01 1 -2 2
1593 504 14 4.1699999999999998e-01 5.0945299518444273e+01 5.3612742530346800e+01 3.0453713021651737e+01 -1 0 1
1840 587 13 -8.3399999999999996e-01 5.6835771922111803e+01 4.9477304736907904e+01 5.7038496630207241e+01 0 1 0
1929 616 14 4.1699999999999998e-01 5.6971833237784679e+01 5.4819553380497972e+01 3.6945815386861277e+01 0 -1 0
1991 637 14 4.1699999999999998e-01 5.5725127829848923e+01 5.0622826562212758e+01 3.6418745077903871e+01 1 0 1
1992 637 14 4.1699999999999998e-01 5.4477459080770338e+01 5.1341342475947421e+01 3.6886665292529763e+01 1 0 1
405 108 14 4.1699999999999998e-01 5.4407001219982249e+01 5.5530380572730692e+01 3.5068436354967204e+01 0 0 1
1187 369 14 4.1699999999999998e-01 5.3739164370425542e+01 5.5435847344141166e+01 3.1309501561296710e+01 0 -1 0
692 204 14 4.1699999999999998e-01 5.1108697681398191e+01 5.3298559201252679e+01 3.5673036361753049e+01 -1 -1 1
1842 587 14 4.1699999999999998e-01 5.6626146327285511e+01 5.0403217440304566e+01 5.6916121046692332e+01 0 1 0
1005 308 14 4.1699999999999998e-01 5.8164931933330593e+01 4.8761713204471057e+01 3.4988095386889427e+01 0 0 1
877 266 13 -8.3399999999999996e-01 5.7858982551662393e+01 5.1880053762935738e+01 3.3173363541437951e+01 -1 -1 0
878 266 14 4.1699999999999998e-01 5.7857661342251724e+01 5.2631548257312609e+01 3.2580500859650471e+01 -1 -1 0
1841 587 14 4.1699999999999998e-01 5.7628855434508395e+01 4.9479599867297900e+01 3.0203082230846874e+01 0 1 1
175 32 13 -8.3399999999999996e-01 6.1587370111048664e+01 5.3374247815421739e+01 3.3108162691112852e+01 -1 -1 0
176 32 14 4.1699999999999998e-01 6.1277946494097534e+01 5.2863927815795797e+01 3.3856538206806938e+01 -1 -1 0
177 32 14 4.1699999999999998e-01 6.2301314302552107e+01 5.3906431543334740e+01 3.3459298705212660e+01 -1 -1 0
262 61 13 -8.3399999999999996e-01 6.0728263329014879e+01 5.2095475378460250e+01 3.5455920650743906e+01 -1 1 -1
264 61 14 4.1699999999999998e-01 6.0300617018776244e+01 5.1329258389485979e+01 3.5838366565522342e+01 -1 1 -1
781 234 13 -8.3399999999999996e-01 5.9286766284883818e+01 4.9070807837775796e+01 3.0940352685412769e+01 0 0 0
782 234 14 4.1699999999999998e-01 5.9351274936378914e+01 4.8203817345856436e+01 3.1340848067332310e+01 0 0 0
783 234 14 4.1699999999999998e-01 5.9895818453015060e+01 4.9612771815883143e+01 3.1441908303977051e+01 0 0 0
879 266 14 4.1699999999999998e-01 5.8442202399348361e+01 5.1246119718987693e+01 3.2755976824663030e+01 -1 -1 0
985 302 13 -8.3399999999999996e-01 6.1065856091508444e+01 5.0817733331174466e+01 3.2396855477891748e+01 0 0 0
986 302 14 4.1699999999999998e-01 6.1442298699558748e+01 5.1650806177674617e+01 3.2680601205440730e+01 0 0 0
987 302 14 4.1699999999999998e-01 6.1776107803887491e+01 5.0184881680542098e+01 3.2503031081171294e+01 0 0 0
1198 373 13 -8.3399999999999996e-01 6.2567868011284169e+01 4.9769592111692731e+01 3.5624597315710766e+01 0 0 -1
1199 373 14 4.1699999999999998e-01 6.2773701341653577e+01 4.9604460702089362e+01 3.4704490796642276e+01 0 0 -1
1200 373 14 4.1699999999999998e-01 6.2482139552951189e+01 5.0721069075765755e+01 3.5684319522171322e+01 0 0 -1
1831 584 13 -8.3399999999999996e-01 6.1060966361126397e+01 5.3940064141593417e+01 3.0382144180927373e+01 0 1 1
1832 584 14 4.1699999999999998e-01 6.1039055483032094e+01 5.3612337493823169e+01 3.1281225528721244e+01 0 1 1
1833 584 14 4.1699999999999998e-01 6.1823583546091832e+01 5.3514631820146874e+01 2.9990158258438619e+01 0 1 1
1928 616 14 4.1699999999999998e-01 5.8298968167063506e+01 5.4392092987755447e+01 3.7535632934325037e+01 0 -1 0
859 260 13 -8.3399999999999996e-01 5.9058013867500719e+01 5.0270840091876266e+01 3.7123003512343296e+01 0 0 0
12 1 8 0.0000000000000000e+00 4.0647721570551241e+01 5.5671987370718043e+01 3.5876866877793532e+01 0 0 0
14 1 8 -1.1500000000000000e-01 4.0035753837513397e+01 5.6670896494641724e+01 3.5152425805907889e+01 0 0 0